<?xml version="1.0"?>
<VTKFile type="UnstructuredGrid" version="0.1" byte_order="LittleEndian">
  <UnstructuredGrid>
    <Piece NumberOfPoints="4" NumberOfCells="1">
      <Points>
        <DataArray type="Float32" NumberOfComponents="3" Name="Position" format="ascii">
          0 0 0
          0.5 0 0
          0 0.5 0
          0 0 0.5
        </DataArray>
      </Points>
      <PointData>
        <DataArray type="Float32" NumberOfComponents="1" Name="value" format="ascii">
          0 0.1 0.4 0
        </DataArray>
      </PointData>
      <Cells>
        <DataArray type="Int32" Name="connectivity" format="ascii">
          0 1 2 3
        </DataArray>
        <DataArray type="Int32" Name="offsets" format="ascii">
          4
        </DataArray>
        <DataArray type="UInt8" Name="types" format="ascii">
          10
        </DataArray>
      </Cells>
    </Piece>
  </UnstructuredGrid>
</VTKFile>
